LAMMPS data file via write_data, version 29 Aug 2024, timestep = 1000000, units = real

972 atoms
2 atom types
1296 bonds
1 bond types
2592 angles
3 angle types

0 50.95238539457901 xlo xhi
0 50.95238539457901 ylo yhi
0 50.95238539457901 zlo zhi

Atoms # full

658 0 1 0 0.3678931666233577 4.518134209277553 8.270654186369466 1 0 0
30 0 2 0 8.157758903270715 2.1639899123121844 2.152933018341466 0 0 0
93 0 2 0 10.65597001873361 6.293935285117438 0.22084378730719048 0 0 1
235 0 2 0 10.727253653353005 0.2998390100210866 6.406767770014506 0 1 0
6 0 1 0 8.457294896747545 4.425757275614325 0.06083307018358745 0 0 0
35 0 2 0 14.905469070911458 2.1489403494998176 8.311651599574747 0 0 0
10 0 1 0 17.164486891407265 4.1051128461572635 8.340550675921428 0 0 0
340 0 2 0 17.393657199484906 5.90605421482311 5.9123516525454285 0 0 0
12 0 1 0 12.895115315456897 0.09804505094352318 8.431902904333317 0 0 0
341 0 2 0 23.27442648209788 0.1285112107172146 6.122994093813629 0 0 0
346 0 2 0 23.581944904625285 6.205835604266808 0.07614241900937278 0 0 0
27 0 2 0 2.527929210436232 9.165585061369708 2.23457094258684 0 0 0
16 0 2 0 0.6930301152720726 6.585408301762941 6.14741427043773 0 0 0
662 0 2 0 0.025296936399690488 11.028394159379067 6.124814791812026 1 0 0
650 0 1 0 0.34677683285090205 8.738726752590956 4.201883126041397 1 0 0
22 0 2 0 6.222904599230165 6.473576518946949 0.19841306410428589 0 0 0
2 0 1 0 17.220492634067856 8.266679165941918 4.159135649381411 0 0 0
25 0 2 0 14.891299130077481 8.117320937483685 2.0812098108039248 0 0 0
14 0 2 0 16.787247358481167 10.483126366943733 6.366177324936079 0 0 0
9 0 1 0 17.189513126809093 12.60394081819171 8.454618067542135 0 0 0
419 0 2 0 23.579145841830776 10.711813731899097 0.2678625708249777 0 0 1
351 0 2 0 19.45094217751947 8.411117117283066 2.1940941375704908 0 0 0
403 0 1 0 21.543952383167913 8.583933123506364 0.08154421649804605 0 0 1
125 0 2 0 6.474590056466633 16.914950116342908 6.442002387986435 0 0 0
32 0 2 0 8.431369077726183 15.060132502652952 2.088469080627342 0 0 0
111 0 1 0 8.694626749895914 16.987444348113634 4.383169183801112 0 0 0
19 0 2 0 10.827000514395898 16.68715597121436 6.3040609144841 0 0 0
443 0 1 0 21.316576811241212 17.1278369962286 8.43009170586795 0 0 0
449 0 2 0 23.561670710083046 17.292829566939545 6.363283746298469 0 0 0
357 0 2 0 19.217946453670418 14.885370033653272 8.255384446896812 0 0 0
766 0 1 0 0.2970103060173386 21.649218352862214 8.437568392331686 1 0 0
124 0 2 0 0.2299678321594886 23.491201617620753 6.106015285659488 0 0 0
138 0 2 0 8.745441826289545 19.22462868040023 2.3813185040510025 0 0 0
130 0 2 0 6.5081481143980655 23.16903576241292 0.07462236390681355 0 0 0
114 0 1 0 8.637744444710242 21.27990918883379 0.12564801917647372 0 0 0
201 0 2 0 10.874116743134318 23.36376262474032 0.15854343567738832 0 0 1
448 0 2 0 16.798916218760912 23.091387607441156 6.33274598144384 0 0 0
118 0 1 0 17.000039681260628 20.89553774520252 8.263569187539867 0 0 0
110 0 1 0 17.16395385157092 25.17527431879915 4.178731166822338 0 0 0
468 0 2 0 19.3422820861824 19.165151017194866 8.312329194550172 0 0 0
459 0 2 0 19.259860439041567 24.910074744955892 1.9491612132212535 0 0 0
511 0 1 0 21.524934021060773 25.23641728317251 0.10805817960949887 0 0 1
36 0 2 0 2.569906390273079 2.4517010350745276 8.518609437859219 0 0 0
21 0 2 0 10.383160777735085 6.272401247854868 16.70289461200269 0 0 0
26 0 2 0 8.372135826798077 1.80903646329731 14.837227171709054 0 0 0
42 0 1 0 8.245525834811819 4.043322326419939 16.80217997376326 0 0 0
20 0 2 0 16.947260496791014 6.072881446480904 10.701546353609551 0 0 0
360 0 2 0 19.37082167941949 2.079750270506261 8.51318140216307 0 0 0
668 0 2 0 0.29454570510510253 6.738035888983085 10.334051502100591 1 0 0
23 0 2 0 6.328636360363792 10.129393714418162 16.89912165156577 0 0 0
31 0 2 0 2.035187905118575 8.740485263331458 14.641328685253994 0 0 0
7 0 1 0 3.926118871777925 8.268391946718417 16.962070485826967 0 0 0
342 0 2 0 17.338248950739448 10.500523725250964 10.71669754467728 0 0 0
29 0 2 0 14.720411743348075 8.352386175482977 14.942197143488434 0 0 0
4 0 1 0 16.94660572218361 8.2533761722712 12.874596335348825 0 0 0
347 0 2 0 23.059306672213687 10.695591223437713 16.644838184570492 0 0 0
382 0 2 0 23.657100263302294 6.383974489337599 16.72077319584027 0 0 0
355 0 2 0 19.189381017110573 8.041179772121296 14.808842843192515 0 0 0
331 0 1 0 21.24398892756645 8.306627191948632 16.82570302396394 0 0 0
119 0 1 0 4.390495330499775 17.161792623801094 8.78262146284694 0 0 0
33 0 2 0 1.9246694990007582 15.360343904534504 8.723149981085049 0 0 0
134 0 2 0 8.733514772080339 18.992700162161583 14.93257671494476 0 0 0
13 0 2 0 6.430734324502597 17.171796798683058 10.977158509248545 0 0 0
123 0 2 0 10.559853228264881 16.437497419760096 10.796704265680699 0 0 0
28 0 2 0 8.246172692048221 14.479404879442999 15.002489397404002 0 0 0
1 0 1 0 8.658229658748885 16.759535614407735 12.9953713884223 0 0 0
34 0 2 0 14.902334395418452 14.510530102210366 8.887845730174456 0 0 0
120 0 1 0 12.762894196606428 16.612307153168924 8.72811617724221 0 0 0
143 0 2 0 14.677113140255056 18.81161813938599 8.499970705911197 0 0 0
352 0 2 0 25.260360800839248 14.581303082381535 14.638512625460551 0 0 0
337 0 2 0 23.441753951650906 17.167198324720648 10.70647140292214 0 0 0
144 0 2 0 2.531469792336453 19.613593234189594 8.876972690495906 0 0 0
115 0 1 0 4.265247308997606 25.36846870847815 16.92688199850032 0 0 0
149 0 1 0 12.572984077629002 25.10724891563671 16.94174751982003 0 0 0
463 0 2 0 18.94154286840729 24.9299478174443 14.69704912719553 0 0 0
128 0 2 0 17.167046003545636 22.915427077984866 10.4575725470729 0 0 0
137 0 2 0 14.596008068256555 24.587660846787806 14.72037091221656 0 0 0
112 0 1 0 16.80797337498604 24.89277796388467 12.660606874570187 0 0 0
439 0 1 0 21.120224373154763 25.16552844320035 16.67785274106193 0 0 0
490 0 2 0 23.453159925355813 23.155897014896833 16.875800436154936 0 0 0
72 0 2 0 2.123920067403365 2.566949577420877 25.060814885994972 0 0 0
47 0 1 0 3.992061067844985 0.4082983545702581 25.24211875865007 0 0 0
58 0 2 0 5.90517875947213 5.804061405153153 17.137297264493636 0 0 0
66 0 2 0 8.67462775273895 2.025939551707969 18.993145396585007 0 0 0
376 0 2 0 17.0904551964684 6.338569928856242 23.533587736230444 0 0 0
363 0 1 0 25.38398778351374 0.3074633661346409 21.192186631177865 0 0 0
390 0 2 0 25.26138420618357 2.4136184841425106 19.11734001524136 0 0 0
396 0 2 0 19.233577640727244 2.0957066061715386 25.436635103220585 0 0 0
63 0 2 0 2.1263820494425953 8.599914956720658 19.24776177286882 0 0 0
44 0 1 0 8.189913371226217 12.391345491306463 17.17478079887075 0 0 0
60 0 2 0 10.571724484695139 10.481544924532852 17.328924790337137 0 0 0
41 0 1 0 12.603575050555518 8.17215322066118 17.11396871265791 0 0 0
61 0 2 0 14.634649913590673 8.076048688927253 19.286158198998844 0 0 0
38 0 1 0 16.99411806395982 8.08493314317896 21.11601374678057 0 0 0
50 0 2 0 16.835644291576138 10.410445223717563 23.145541009710016 0 0 0
45 0 1 0 16.699156652122888 12.458750466593656 25.343061724645523 0 0 0
387 0 2 0 19.244266305821174 8.194791761820674 19.02686273821342 0 0 0
161 0 2 0 6.025439662500006 16.447024974862803 23.442438303862147 0 0 0
68 0 2 0 8.086087289928301 14.1098073318299 19.546648770083422 0 0 0
147 0 1 0 8.260690536574229 16.472913061412974 21.412011765234638 0 0 0
55 0 2 0 10.289383222393752 16.265731925528332 23.526008353180742 0 0 0
156 0 1 0 12.533407486104839 16.67078172898403 25.46235558228081 0 0 0
174 0 2 0 8.430933027111134 18.722277692955718 19.340788447244076 0 0 0
393 0 2 0 18.720858262380602 14.772941705840108 25.115041169686485 0 0 0
70 0 2 0 14.561721214576231 14.538331674837707 25.3970261050307 0 0 0
479 0 1 0 20.88258383714712 16.917578816982065 25.40616587337872 0 0 0
485 0 2 0 23.22781266508256 16.746240927274037 23.41477478731928 0 0 0
180 0 2 0 2.0672074060127312 19.409718864758236 25.40158324507563 0 0 0
166 0 2 0 6.326132007652457 23.156155455832124 17.03313802512877 0 0 0
129 0 2 0 10.670907146813658 22.864508364111167 17.495006397781435 0 0 0
150 0 1 0 8.474191725629613 20.86285045272447 17.18657381412661 0 0 0
484 0 2 0 16.697806612884968 23.228835640831154 23.233513743307945 0 0 0
154 0 1 0 16.761448666985043 21.053264691845303 25.46675213311545 0 0 0
495 0 2 0 19.063800307297946 25.062479150637277 19.072382062313913 0 0 0
146 0 1 0 17.09408959286258 25.40604477006545 21.145783524290508 0 0 0
169 0 2 0 14.861996433349697 25.313000623256084 18.97350995360054 0 0 0
504 0 2 0 19.143446382713748 19.24797256054635 25.168729414629126 0 0 0
498 0 2 0 25.35618984500399 19.115131097005786 19.38067520447442 0 0 0
265 0 2 0 5.910028437263757 0.41070632632568127 27.439613720036583 0 1 0
62 0 2 0 7.865040817200013 2.032596468553855 32.013799676201714 0 0 0
253 0 1 0 7.908414995338168 0.07616220204432705 29.5776139325581 0 1 0
46 0 1 0 17.067664702985578 4.2016479530061455 25.609803150908423 0 0 0
71 0 2 0 14.541318146757154 2.2888266618871747 25.614640307305542 0 0 0
56 0 2 0 17.279385480954318 6.328531919247757 27.671486543456663 0 0 0
589 0 2 0 23.482985492280793 0.24702908393868525 27.450981808722346 0 1 0
418 0 2 0 23.036959206861095 6.30691186033916 33.61729002478126 0 0 0
67 0 2 0 1.8252423887208704 8.604968557488817 31.883466755152597 0 0 0
96 0 2 0 10.632102855515262 10.947127108007951 33.92788364676147 0 0 0
57 0 2 0 10.179266437766419 6.635794495421853 33.92043029462292 0 0 0
40 0 1 0 16.625194214783782 8.435299141284176 29.723526052251554 0 0 0
378 0 2 0 16.808068513695126 10.61037567969748 27.76036529762 0 0 0
65 0 2 0 14.318973974521747 8.341288803781834 31.689117487360726 0 0 0
391 0 2 0 18.786480595852545 8.81111020373589 31.840870475556773 0 0 0
383 0 2 0 23.263258011119813 10.61530814420117 33.8912570438841 0 0 0
155 0 1 0 3.9111161058875474 16.8644328200962 25.51321698173478 0 0 0
69 0 2 0 1.6593213898798203 14.784008118227877 25.477928641924844 0 0 0
49 0 2 0 6.1752332795693805 16.56313625002404 27.555010656291053 0 0 0
64 0 2 0 7.758234192912983 14.838923349510715 31.874563186007677 0 0 0
37 0 1 0 8.218599411310548 16.772717234780114 29.808482911127548 0 0 0
170 0 2 0 8.572368961602434 19.00408974114379 31.86266375969613 0 0 0
159 0 2 0 10.577045630912602 16.75930801183566 27.92880669812573 0 0 0
388 0 2 0 25.29646645893755 14.712779414200455 31.782938109451596 0 0 0
373 0 2 0 22.94962647197976 17.02663395883234 27.823844126753286 0 0 0
361 0 1 0 25.177014861418094 16.85324362850437 29.660724130461396 0 0 0
494 0 2 0 25.35011219056512 19.082945936667574 31.66049649340004 0 0 0
175 0 2 0 2.3216553101649415 25.360589583821174 31.776705036727265 0 0 0
812 0 2 0 0.28506039768280855 23.49239457786584 27.543416574094916 1 0 0
796 0 1 0 0.15330689490111413 25.4070297348633 29.68798507105108 1 0 0
151 0 1 0 4.490400267211812 25.46266857788073 33.901344268017226 0 0 0
202 0 2 0 6.58154479060831 23.259255459124685 33.833629471330404 0 0 0
164 0 2 0 17.082511561686346 23.10624435900766 27.629297457680355 0 0 0
179 0 2 0 14.359660690850784 19.1155631729273 25.707482922208907 0 0 0
148 0 1 0 17.23908732449543 25.15196723372648 29.807980805277364 0 0 0
173 0 2 0 14.86240065608122 25.22903677188068 31.827274638575318 0 0 0
499 0 2 0 19.36806977470312 25.37879463008759 31.962855162384535 0 0 0
526 0 2 0 23.756240793802593 23.470600353167434 33.7692087756584 0 0 0
89 0 2 0 5.970507565745415 0.3053660978306479 40.15833314353327 0 0 0
94 0 2 0 5.697053297127023 6.118014671172237 34.06912362592412 0 0 0
102 0 2 0 8.417253846743153 2.1373008848766566 36.20135383429797 0 0 0
78 0 1 0 8.209068396832746 4.21500352525246 34.0408673846007 0 0 0
412 0 2 0 16.498455815019884 6.2597047020335035 40.33911357421464 0 0 0
107 0 2 0 14.658892651303814 2.0251844957150835 42.241245334576824 0 0 0
399 0 1 0 24.987959760412775 0.18524917711286548 38.25965432954441 0 0 0
426 0 2 0 24.8693029467404 2.535965913264573 36.205837392458776 0 0 0
402 0 1 0 25.237345325735966 4.290822843779476 34.002873178288745 0 0 0
99 0 2 0 1.8340133441886173 8.203517730108201 36.44654082251743 0 0 0
43 0 1 0 3.8700436872701243 8.353422988009456 34.120549196055315 0 0 0
59 0 2 0 6.099869216941108 10.53269617322165 34.34551861564899 0 0 0
77 0 1 0 12.488062482835547 8.532141270136716 33.97204758572795 0 0 0
97 0 2 0 14.513519445866603 8.392837458109323 36.20373351957664 0 0 0
74 0 1 0 16.726644298177543 8.48760451296607 38.09556802095164 0 0 0
86 0 2 0 16.660447210900916 10.44932699581882 40.22057687815215 0 0 0
81 0 1 0 16.99976955984957 12.464461133723155 42.39191533594985 0 0 0
423 0 2 0 18.933745097485343 8.359805745729155 36.13624134257792 0 0 0
367 0 1 0 21.008837666057723 8.425808537312852 33.99998335171797 0 0 0
191 0 1 0 4.300407612662581 17.258380252202077 42.43126774001194 0 0 0
729 0 1 0 0.18594382522018787 12.918713647873997 42.27234081662788 1 0 0
105 0 2 0 2.1125201524091564 15.137600725374403 42.279967779866624 0 0 0
197 0 2 0 6.457008110729421 17.13106007908447 40.44305506709286 0 0 0
104 0 2 0 8.100196359424267 14.653218809822237 36.37105055675014 0 0 0
183 0 1 0 8.538723008315142 16.934395969743804 38.263718739763426 0 0 0
91 0 2 0 10.702354574336676 16.822280004309643 40.20878614701189 0 0 0
80 0 1 0 8.320538974319177 12.749028393120454 34.06788987561332 0 0 0
192 0 1 0 12.784880631507788 17.068288692578236 42.3575328867032 0 0 0
106 0 2 0 14.757357047791977 14.601541003514717 42.35572836406994 0 0 0
521 0 2 0 23.25716828407311 16.852581002766293 40.35318318133477 0 0 0
429 0 2 0 19.24242986051377 14.72947277932796 42.297319407026535 0 0 0
507 0 1 0 25.26877163983035 17.127106556214077 38.197989989359726 0 0 0
404 0 1 0 25.434634058108017 12.75820327161194 34.094673704346484 0 0 0
216 0 2 0 2.3182177678867277 19.429031713674465 42.24411538995109 0 0 0
830 0 1 0 0.15047229747410654 25.393469217372687 37.99306954630568 1 0 0
207 0 2 0 2.5841329802630413 25.251796996934747 36.15733253787428 0 0 0
210 0 2 0 8.5162990446404 19.356771689242457 36.44408425861178 0 0 0
186 0 1 0 8.872002519735656 21.3055836358555 34.08690186899869 0 0 0
165 0 2 0 10.955529304755292 23.281420427268305 34.3711447518883 0 0 0
205 0 2 0 15.488993653328654 25.359360827855358 36.277387035890314 0 0 0
520 0 2 0 17.546122390410485 23.4432503843989 40.36047967656798 0 0 0
190 0 1 0 17.017956737629017 21.27868640056639 42.29469398787039 0 0 0
215 0 2 0 14.640500473305188 19.533424681833527 42.17064644882153 0 0 0
185 0 1 0 13.150004116451555 25.44747877262005 34.2486526203212 0 0 0
534 0 2 0 25.181893769111134 19.176706103450762 35.93872758671054 0 0 0
108 0 2 0 2.0565783806866085 2.347276763867021 42.743464919425705 0 0 0
83 0 1 0 3.90934733881785 0.19384297087778346 42.529557490966425 0 0 0
301 0 2 0 6.175023359973219 0.07494347701255985 44.656183790369006 0 1 0
289 0 1 0 8.490462610814179 0.24861825568701845 46.609426558604376 0 1 0
87 0 2 0 10.697343027317164 0.05436097394691368 44.46515631963569 0 0 0
98 0 2 0 8.574756101544697 2.717207309496309 48.56884807159936 0 0 0
82 0 1 0 16.754084138377344 4.238219640382381 42.47323391142425 0 0 0
432 0 2 0 19.052496243308017 2.39943749640011 42.502184902217245 0 0 0
92 0 2 0 16.641509622138656 6.049241974262152 44.78865710341219 0 0 0
625 0 2 0 23.22725287900289 0.2524887831984812 44.77343468750673 0 1 0
407 0 1 0 21.11871069237266 0.10366426150548577 42.666599388052504 0 0 0
724 0 1 0 0.14710942432475077 8.719954258581527 46.79469152017503 1 0 0
103 0 2 0 2.3506012635635374 9.062857050742938 48.66079758279021 0 0 0
90 0 2 0 0.14135461799110124 10.878948687097912 44.47189151198593 0 0 0
79 0 1 0 4.397601412270061 8.898372282259265 50.84565147019775 0 0 0
24 0 2 0 10.86684406125256 10.896636339346305 50.89514804439201 0 0 -1
95 0 2 0 6.501381459722251 11.011668152380173 50.79014278471696 0 0 0
101 0 2 0 15.015281153417451 8.419756697384768 48.99656924052466 0 0 0
414 0 2 0 17.212283642355825 10.502457198700075 44.59044791844088 0 0 0
76 0 1 0 16.975235696876 8.35004416472386 46.743363060271946 0 0 0
5 0 1 0 12.854962135920585 8.468583669736718 50.902999333238334 0 0 -1
427 0 2 0 19.488204716933893 8.458083608169908 48.62498069795113 0 0 0
85 0 2 0 6.345440466362867 17.482020001003114 44.587880626594824 0 0 0
8 0 1 0 8.744622082694539 13.06277154873142 50.81964617457242 0 0 -1
195 0 2 0 10.71034254776548 17.191672627257827 44.45418732169718 0 0 0
73 0 1 0 8.525913359977016 17.292979733346787 46.64649703603179 0 0 0
100 0 2 0 8.851195932124044 15.017595500286992 48.485629293364994 0 0 0
540 0 2 0 19.028275981724413 19.050735900432354 42.517518994137674 0 0 0
397 0 1 0 25.44999716173353 17.0646630537684 46.76217583907604 0 0 0
515 0 1 0 21.175414895233885 16.982568774737416 42.56039134505457 0 0 0
409 0 2 0 23.153005421605272 16.966819540228638 44.7898570625466 0 0 0
832 0 1 0 0.0780836086217207 25.299693252047334 46.5431547000502 1 0 0
848 0 2 0 0.05121941338633741 23.190778133179734 44.69694247953543 1 0 0
211 0 2 0 2.3359991415025414 25.357345069555095 48.539428529814316 0 0 0
187 0 1 0 4.386219721920948 25.286403285110104 50.616381883523296 0 0 0
206 0 2 0 8.511629459411003 19.4995260013451 48.74325327412427 0 0 0
209 0 2 0 14.841753620279992 25.425269602713545 48.58551390826358 0 0 0
200 0 2 0 17.151953753925703 23.296538031656908 44.56943289858981 0 0 0
184 0 1 0 17.17185215790546 25.471614804371164 46.66072448291781 0 0 0
454 0 2 0 23.537761274070228 23.11641139963049 50.912713098261996 0 0 -1
535 0 2 0 19.616848847117893 25.31072765873592 48.63400378238325 0 0 0
135 0 2 0 2.2011361937631078 25.593301582979134 1.7969638680465991 0 0 0
765 0 1 0 0.17608167020712023 29.915924313839422 8.296339349845637 1 0 0
758 0 1 0 0.061119310588879275 25.707435310931317 3.942974062951249 1 0 0
132 0 2 0 10.75569481817216 27.930187390935817 0.05395358082962787 0 0 0
133 0 2 0 15.117457747176964 25.639199905377964 2.0899653617947282 0 0 0
122 0 2 0 17.311854927386467 27.390120168747533 6.254336477080102 0 0 0
117 0 1 0 16.927089628077205 29.525661477136946 8.482844119621614 0 0 0
527 0 2 0 23.400556019309136 27.615044375806033 0.2945327992895392 0 0 1
465 0 2 0 19.197515139713296 31.651896565845764 8.306963192373559 0 0 0
227 0 1 0 4.412012077682941 34.17535635359599 8.47342458969724 0 0 0
141 0 2 0 2.2236068486193155 32.02996306167315 8.263694038233917 0 0 0
233 0 2 0 6.5637040149710115 33.92930023438639 6.180594683289511 0 0 0
140 0 2 0 8.287293472621606 31.948648328443994 2.079382802556282 0 0 0
219 0 1 0 8.714257934682756 33.93269157570345 4.181687854751576 0 0 0
246 0 2 0 8.85217775821637 36.31312413548009 2.3093028490004484 0 0 0
127 0 2 0 10.818922897088983 33.709898779320135 6.383050798004774 0 0 0
226 0 1 0 16.909738314451726 38.0240209549791 8.332578614721614 0 0 0
576 0 2 0 19.063352075282555 35.823148073302924 8.20335938009144 0 0 0
557 0 2 0 23.144245074534467 33.65881587400006 6.107183180764665 0 0 0
551 0 1 0 21.207823980161447 33.72460056860724 8.42935387278838 0 0 0
295 0 1 0 4.182860256306171 42.78942110407329 0.30083040160499486 0 0 1
866 0 1 0 0.0733482649889794 42.561203016091184 4.419483591775566 1 0 0
243 0 2 0 2.245064213630902 42.7183060248414 2.458522048867873 0 0 0
238 0 2 0 6.036237328777061 40.408232983601785 0.1982188468311455 0 0 0
232 0 2 0 0.022548403944966565 40.18462587476785 6.200520343198763 0 0 0
874 0 1 0 0.20062081650626862 38.26687279180238 8.479000388113345 1 0 0
221 0 1 0 12.869681979793391 42.589347943199535 0.10327928130244599 0 0 0
218 0 1 0 16.869685019522798 42.44378950612738 4.370832594169569 0 0 0
241 0 2 0 14.613081233363317 42.40883876811889 2.4465285537674872 0 0 0
556 0 2 0 16.80267198622658 40.249528355795114 6.575998309551775 0 0 0
567 0 2 0 18.948138587278578 42.134928490688246 2.056573175653706 0 0 0
562 0 2 0 23.30080874594856 40.05571987772044 0.20566156722603515 0 0 0
635 0 2 0 23.075687882774492 44.554571817380115 0.1380886848932211 0 0 1
11 0 1 0 4.378201160672903 50.81729694959679 8.131825926217347 0 -1 0
249 0 2 0 2.268449843920865 48.63648432946528 8.215631749571633 0 0 0
17 0 2 0 6.447430413874394 50.816956529347884 5.985706788571233 0 -1 0
248 0 2 0 9.04076675546615 48.69454895683871 1.9737709836501682 0 0 0
3 0 1 0 8.646506838879878 50.949255474614425 4.035083181024063 0 -1 0
230 0 2 0 16.80268236964968 44.74169594011051 6.0990911983493 0 0 0
225 0 1 0 16.969711587453876 46.700137047501556 8.291857131361475 0 0 0
250 0 2 0 14.938072090525733 48.91756721647979 8.191865259703324 0 0 0
573 0 2 0 19.345229795758755 48.75917189534003 8.309204934373337 0 0 0
335 0 1 0 21.417225334712256 50.8989364756137 8.455517906026488 0 -1 0
126 0 2 0 0.3751095845690919 27.879924118854426 10.624838190925264 0 0 0
760 0 1 0 0.10107703644377478 25.694587887418873 12.659558803529805 1 0 0
139 0 2 0 2.2516367987445745 25.777198530700172 14.700599979875825 0 0 0
168 0 2 0 10.775597801416794 27.44476868517262 16.83599320793465 0 0 0
136 0 2 0 8.528609610853634 31.39579558632831 14.69004409415933 0 0 0
450 0 2 0 16.87067402306673 27.33464646654856 10.582451490050676 0 0 0
142 0 2 0 14.744821090146436 31.468818409756228 8.677806200514793 0 0 0
455 0 2 0 22.984952806951377 27.505350164611976 16.559180455425967 0 0 0
252 0 2 0 2.4802629814997497 36.35106085725129 8.626334381721005 0 0 0
121 0 2 0 6.412379238471418 34.25649649075443 10.85305406488206 0 0 0
231 0 2 0 10.549460396551586 33.95954805492379 10.864498964554135 0 0 0
109 0 1 0 8.485601326147151 33.831037626047426 12.94609923904703 0 0 0
242 0 2 0 8.361283336777852 36.00654849348074 15.004336546020909 0 0 0
228 0 1 0 12.678133887468139 33.64024578754282 8.682612516454729 0 0 0
251 0 2 0 14.723269068531575 35.904470552246835 8.493663110183011 0 0 0
582 0 1 0 25.393849500983947 38.08665895600868 16.95714750782269 0 0 0
566 0 2 0 25.311575780790598 35.79968403946518 14.933563355794888 0 0 0
433 0 1 0 25.40596095700125 33.76311809509866 12.664653345847201 0 0 0
445 0 2 0 23.35935917037958 34.04990169880175 10.527319974790416 0 0 0
868 0 1 0 0.03541902063614774 42.28653433172456 12.815205132378575 1 0 0
247 0 2 0 2.2327459754752144 41.70011165775125 14.907383549150586 0 0 0
237 0 2 0 10.904772989483156 39.93630965066818 16.91152111142435 0 0 0
236 0 2 0 16.969817102636554 40.19781037901233 10.563656139531712 0 0 0
220 0 1 0 17.1058620694276 42.40810375821976 12.587002464848553 0 0 0
245 0 2 0 15.01101837359332 42.14270835285888 14.790797375616593 0 0 0
257 0 1 0 12.985305886968927 42.196733717892954 16.970763855397237 0 0 0
571 0 2 0 19.42455004980944 42.37434604678111 14.73783250266551 0 0 0
234 0 2 0 0.14511257906079983 44.73211550065726 10.992260416003573 0 0 0
244 0 2 0 8.421612916696843 48.40605287927733 14.660539204202623 0 0 0
217 0 1 0 8.56225114697829 50.64280292595245 12.617212755348397 0 0 0
229 0 2 0 6.384446944236612 50.730768312394964 10.494775063409667 0 0 0
15 0 2 0 10.763676205623684 50.884802497840646 10.780572973769857 0 -1 0
558 0 2 0 16.94379862947218 44.64567248055168 10.470371948033488 0 0 0
553 0 2 0 23.33588450354891 50.881809797873316 10.836675210237406 0 0 0
171 0 2 0 2.332195110516387 25.552004606958196 19.16361296304043 0 0 0
806 0 2 0 0.01879662662652814 27.858541410691295 23.514798482200312 1 0 0
794 0 1 0 0.04572873190551974 25.67335131914457 21.241240059067927 1 0 0
152 0 1 0 8.640935449346548 29.41278628862503 17.104899574994075 0 0 0
176 0 2 0 8.863136224342787 31.66820034639881 19.225221940477326 0 0 0
131 0 2 0 6.455624940276916 27.426907435242242 17.20103401898603 0 0 0
158 0 2 0 17.294988126077396 27.64608479286352 23.26666044685341 0 0 0
269 0 2 0 6.364416203393565 33.87159183601759 23.44621869903326 0 0 0
163 0 2 0 10.812290393080465 33.49748216381935 23.478576821911204 0 0 0
282 0 2 0 8.919948456569646 35.78706414411558 19.35634783440092 0 0 0
255 0 1 0 8.66793555036229 33.714420373761406 21.458608633634825 0 0 0
258 0 1 0 8.745296922795387 37.86034527633542 17.2083522416558 0 0 0
287 0 2 0 15.117407524660948 36.06651237693267 25.293403736623155 0 0 0
606 0 2 0 25.45762167259143 36.043990535565385 19.003019344139602 0 0 0
593 0 2 0 23.274485045624452 33.580317549075325 23.179470453832707 0 0 0
587 0 1 0 21.49457173075366 33.954396860079335 25.402223947288036 0 0 0
279 0 2 0 2.4334099329692425 42.20761794341274 19.453459217257024 0 0 0
902 0 1 0 0.07435088242251908 42.61205149436844 21.53951677338315 1 0 0
268 0 2 0 0.3141137950457484 40.55768577292307 23.906684626187538 0 0 0
223 0 1 0 4.366018187611545 42.032128741466074 17.1268757962378 0 0 0
239 0 2 0 6.4161501030415335 44.14804187772397 17.053098122534927 0 0 0
274 0 2 0 6.599196483294231 39.95868658154531 17.15868352932364 0 0 0
276 0 2 0 10.749993998631322 44.44996964887721 17.28094856166219 0 0 0
277 0 2 0 14.8345131085152 42.0313102827857 19.436316379500486 0 0 0
254 0 1 0 17.114287832034805 42.40666722989502 21.38999602072859 0 0 0
592 0 2 0 17.574405165133832 40.24110805893635 23.511502919303776 0 0 0
603 0 2 0 19.04554852035234 42.28987906214975 19.270871243652138 0 0 0
547 0 1 0 21.243000285128627 42.40120122194506 17.215315315122055 0 0 0
598 0 2 0 23.290166753285128 40.36413163270963 17.365666251118906 0 0 0
53 0 2 0 6.123086478760728 50.75819897960788 23.110824570126287 0 -1 0
284 0 2 0 8.429340534880815 48.62548264978556 19.036299491344955 0 0 0
39 0 1 0 8.45202047690138 50.81442179438268 21.227276377409908 0 -1 0
260 0 1 0 8.47680696531897 46.44980001110355 17.010121429842222 0 0 0
271 0 2 0 10.356593731499943 50.86142767853435 23.600203625404404 0 0 0
266 0 2 0 17.07037068740188 44.648777271337345 23.280396102958306 0 0 0
286 0 2 0 14.746565212732746 48.87618689868319 25.33082487021961 0 0 0
563 0 2 0 23.205841260899607 44.64290252503979 17.557875887407974 0 0 0
371 0 1 0 21.32767224483945 50.920842792508054 25.39818526780888 0 -1 0
377 0 2 0 23.097867387377654 50.81219750511517 23.05962722123694 0 -1 0
162 0 2 0 0.3674827234197412 27.79873023828306 27.909783904815114 0 0 0
801 0 1 0 0.20840213817372724 29.96354484871351 25.721863784319126 1 0 0
167 0 2 0 6.636536146268355 27.541251119665926 33.84517150743395 0 0 0
172 0 2 0 8.573735726871568 31.722996266276954 31.80696701258781 0 0 0
178 0 2 0 15.142558236914505 31.58486657586498 25.50229929326468 0 0 0
153 0 1 0 17.43657996128044 29.53194135940498 25.537414326075908 0 0 0
486 0 2 0 17.067357299365398 27.509749261006807 27.54282520760473 0 0 0
501 0 2 0 19.61427362690103 31.66493603464108 25.50077065610717 0 0 0
491 0 2 0 23.635138079540926 27.98392598260893 33.725702353585035 0 0 0
475 0 1 0 21.571292140965888 25.773867553170174 33.96766285052585 0 0 0
177 0 2 0 2.178119790995802 32.315839186838 26.008295798811233 0 0 0
288 0 2 0 2.5496352960835673 36.600894841595355 26.205300733313766 0 0 0
263 0 1 0 4.5184173323569015 34.191278578312385 25.813045544250784 0 0 0
157 0 2 0 6.723683336816977 34.446788570733396 27.89969086037937 0 0 0
267 0 2 0 10.952588540836487 33.77740324784634 28.013321825869607 0 0 0
145 0 1 0 8.877441161666164 34.24784980272981 29.983051177997787 0 0 0
278 0 2 0 8.814393213040045 36.44146962754274 32.061430719732236 0 0 0
264 0 1 0 13.064888806922838 33.76779712019518 25.58906009290556 0 0 0
612 0 2 0 19.60131167064483 36.282188236687254 25.77402062301904 0 0 0
481 0 2 0 23.568729590792564 33.61198457824431 27.624948703250887 0 0 0
602 0 2 0 25.38878043444951 36.257446874044824 31.53943134628306 0 0 0
275 0 2 0 6.205051951645894 44.48144361652739 33.87314799938379 0 0 0
283 0 2 0 1.7249589289990896 42.48329992358328 32.2646822616684 0 0 0
910 0 1 0 0.04898564263035741 38.38057100890605 25.987334547698694 1 0 0
293 0 1 0 12.526194714165475 42.66943479046402 33.949903262015845 0 0 0
262 0 1 0 17.260964090138838 38.238992706717966 25.76230878142513 0 0 0
272 0 2 0 16.88815968006221 40.24342591875312 27.92556097917175 0 0 0
256 0 1 0 16.882733903050607 42.52771091575083 29.745583104474015 0 0 0
281 0 2 0 14.528179569820612 42.45132840388902 31.742344122676414 0 0 0
607 0 2 0 19.249134916504577 42.36904729436298 31.681485298037007 0 0 0
618 0 1 0 25.44405511856148 38.41492758514644 33.78826273359469 0 0 0
634 0 2 0 23.003594703539093 40.25410976427252 33.877497269503465 0 0 0
583 0 1 0 21.061554846914653 42.542627236324 33.93854890178675 0 0 0
285 0 2 0 2.1080513239681196 49.0281573152983 25.86323848429546 0 0 0
909 0 1 0 0.016850888433396535 46.771501126083216 25.932684646088347 1 0 0
270 0 2 0 0.14350747153543167 44.867325845447816 28.240183734379368 0 0 0
296 0 1 0 8.269269339060129 46.66771670844911 33.59937234845046 0 0 0
312 0 2 0 10.472694215531588 44.79311802319656 33.5824509951757 0 0 0
280 0 2 0 7.908232216536686 48.77728692803716 31.417049119786398 0 0 0
51 0 2 0 10.37809110348923 50.79748750893805 27.874847990690228 0 -1 0
48 0 1 0 12.487528262496912 50.89705874102334 25.634759836346365 0 -1 0
594 0 2 0 17.14175447040988 44.69095949151577 27.651237550397326 0 0 0
261 0 1 0 16.949086920084433 46.76030916206175 25.532165297923605 0 0 0
609 0 2 0 19.23146263198957 48.838816514385876 25.650450278304298 0 0 0
599 0 2 0 22.991781133733113 44.721386806995504 33.725295566306826 0 0 0
604 0 2 0 25.144731662113053 48.76456829811284 31.683664153549064 0 0 0
620 0 1 0 25.118670577341234 46.90783640247883 33.95475379813815 0 0 0
842 0 2 0 0.16825730357241336 27.67529449045209 39.99150196621424 1 0 0
837 0 1 0 0.1760877746193962 29.502429034055712 42.395461752957 1 0 0
213 0 2 0 2.2193636738080937 31.767771434222848 42.39692134150396 0 0 0
212 0 2 0 8.423948673444402 31.388247376947692 36.36448263101236 0 0 0
188 0 1 0 8.65872750504278 29.69097501871329 34.015672075389595 0 0 0
204 0 2 0 11.034268388158774 27.82542588210754 34.2206967076731 0 0 0
194 0 2 0 17.403567878961866 28.082911859628876 40.33676974421655 0 0 0
182 0 1 0 17.63462095764298 25.709876225826626 38.48599493960804 0 0 0
531 0 2 0 19.840969295385626 25.920897235633717 36.3677414030301 0 0 0
305 0 2 0 6.345167053168252 34.01226526221131 40.46678449574974 0 0 0
324 0 2 0 2.035215962418907 36.29150364336509 42.43329588434447 0 0 0
318 0 2 0 8.45360454600167 36.09481116369594 36.40040336602492 0 0 0